v -t 0 set_rate_ext 0.0050000000000000001 1
V -t * -v 1.0a5 -a 0
A -t * -n 1 -p 0 -o 0x7fffffff -c 30 -a 1
A -t * -h 1 -m 1073741823 -s 0
c -t * -i 0 -n green
c -t * -i 1 -n blue
c -t * -i 2 -n red
n -t * -a 35 -s 35 -S UP -v circle -c black -i black
n -t * -a 36 -s 36 -S UP -v circle -c black -i black
n -t * -a 37 -s 37 -S UP -v circle -c black -i black
n -t * -a 38 -s 38 -S UP -v circle -c black -i black
n -t * -a 39 -s 39 -S UP -v circle -c black -i black
n -t * -a 40 -s 40 -S UP -v circle -c black -i black
n -t * -a 41 -s 41 -S UP -v circle -c black -i black
n -t * -a 42 -s 42 -S UP -v circle -c black -i black
n -t * -a 43 -s 43 -S UP -v circle -c black -i black
n -t * -a 44 -s 44 -S UP -v circle -c black -i black
n -t * -a 45 -s 45 -S UP -v circle -c black -i black
n -t * -a 46 -s 46 -S UP -v circle -c black -i black
n -t * -a 47 -s 47 -S UP -v circle -c black -i black
n -t * -a 48 -s 48 -S UP -v circle -c black -i black
n -t * -a 50 -s 50 -S UP -v circle -c black -i black
n -t * -a 49 -s 49 -S UP -v circle -c black -i black
n -t * -a 51 -s 51 -S UP -v circle -c black -i black
n -t * -a 52 -s 52 -S UP -v circle -c black -i black
n -t * -a 53 -s 53 -S UP -v circle -c black -i black
n -t * -a 54 -s 54 -S UP -v circle -c black -i black
n -t * -a 55 -s 55 -S UP -v circle -c black -i black
n -t * -a 56 -s 56 -S UP -v circle -c black -i black
n -t * -a 57 -s 57 -S UP -v circle -c black -i black
n -t * -a 58 -s 58 -S UP -v circle -c black -i black
n -t * -a 60 -s 60 -S UP -v circle -c black -i black
n -t * -a 59 -s 59 -S UP -v circle -c black -i black
n -t * -a 61 -s 61 -S UP -v circle -c black -i black
n -t * -a 62 -s 62 -S UP -v circle -c black -i black
n -t * -a 63 -s 63 -S UP -v circle -c black -i black
n -t * -a 64 -s 64 -S UP -v circle -c black -i black
n -t * -a 65 -s 65 -S UP -v circle -c black -i black
n -t * -a 66 -s 66 -S UP -v circle -c black -i black
n -t * -a 67 -s 67 -S UP -v circle -c black -i black
n -t * -a 68 -s 68 -S UP -v circle -c black -i black
n -t * -a 70 -s 70 -S UP -v circle -c black -i black
n -t * -a 69 -s 69 -S UP -v circle -c black -i black
n -t * -a 71 -s 71 -S UP -v circle -c black -i black
n -t * -a 72 -s 72 -S UP -v circle -c black -i black
n -t * -a 73 -s 73 -S UP -v circle -c black -i black
n -t * -a 74 -s 74 -S UP -v circle -c black -i black
n -t * -a 75 -s 75 -S UP -v circle -c black -i black
n -t * -a 10 -s 10 -S UP -v circle -c black -i black
n -t * -a 11 -s 11 -S UP -v circle -c black -i black
n -t * -a 12 -s 12 -S UP -v circle -c black -i black
n -t * -a 13 -s 13 -S UP -v circle -c black -i black
n -t * -a 14 -s 14 -S UP -v circle -c black -i black
n -t * -a 15 -s 15 -S UP -v circle -c black -i black
n -t * -a 16 -s 16 -S UP -v circle -c black -i black
n -t * -a 0 -s 0 -S UP -v circle -c black -i black
n -t * -a 17 -s 17 -S UP -v circle -c black -i black
n -t * -a 1 -s 1 -S UP -v circle -c black -i black
n -t * -a 18 -s 18 -S UP -v circle -c black -i black
n -t * -a 2 -s 2 -S UP -v circle -c black -i black
n -t * -a 19 -s 19 -S UP -v circle -c black -i black
n -t * -a 20 -s 20 -S UP -v circle -c black -i black
n -t * -a 3 -s 3 -S UP -v circle -c black -i black
n -t * -a 21 -s 21 -S UP -v circle -c black -i black
n -t * -a 4 -s 4 -S UP -v circle -c black -i black
n -t * -a 22 -s 22 -S UP -v circle -c black -i black
n -t * -a 5 -s 5 -S UP -v circle -c black -i black
n -t * -a 23 -s 23 -S UP -v circle -c black -i black
n -t * -a 6 -s 6 -S UP -v circle -c black -i black
n -t * -a 24 -s 24 -S UP -v circle -c black -i black
n -t * -a 7 -s 7 -S UP -v circle -c black -i black
n -t * -a 25 -s 25 -S UP -v circle -c black -i black
n -t * -a 8 -s 8 -S UP -v circle -c black -i black
n -t * -a 26 -s 26 -S UP -v circle -c black -i black
n -t * -a 9 -s 9 -S UP -v circle -c black -i black
n -t * -a 27 -s 27 -S UP -v circle -c black -i black
n -t * -a 28 -s 28 -S UP -v circle -c black -i black
n -t * -a 29 -s 29 -S UP -v circle -c black -i black
n -t * -a 30 -s 30 -S UP -v circle -c black -i black
n -t * -a 31 -s 31 -S UP -v circle -c black -i black
n -t * -a 32 -s 32 -S UP -v circle -c black -i black
n -t * -a 33 -s 33 -S UP -v circle -c black -i black
n -t * -a 34 -s 34 -S UP -v circle -c black -i black
l -t * -s 1 -d 0 -S UP -r 1000000 -D 0.01 -c black
l -t * -s 2 -d 1 -S UP -r 256000 -D 0.01 -c black
l -t * -s 3 -d 1 -S UP -r 256000 -D 0.01 -c black
l -t * -s 4 -d 1 -S UP -r 256000 -D 0.01 -c black
l -t * -s 5 -d 1 -S UP -r 256000 -D 0.01 -c black
l -t * -s 6 -d 0 -S UP -r 1000000 -D 0.01 -c black
l -t * -s 7 -d 6 -S UP -r 256000 -D 0.01 -c black
l -t * -s 8 -d 6 -S UP -r 256000 -D 0.01 -c black
l -t * -s 9 -d 6 -S UP -r 256000 -D 0.01 -c black
l -t * -s 10 -d 6 -S UP -r 256000 -D 0.01 -c black
l -t * -s 11 -d 0 -S UP -r 1000000 -D 0.01 -c black
l -t * -s 12 -d 11 -S UP -r 256000 -D 0.01 -c black
l -t * -s 13 -d 11 -S UP -r 256000 -D 0.01 -c black
l -t * -s 14 -d 11 -S UP -r 256000 -D 0.01 -c black
l -t * -s 15 -d 11 -S UP -r 256000 -D 0.01 -c black
l -t * -s 16 -d 0 -S UP -r 1000000 -D 0.01 -c black
l -t * -s 17 -d 16 -S UP -r 256000 -D 0.01 -c black
l -t * -s 18 -d 16 -S UP -r 256000 -D 0.01 -c black
l -t * -s 19 -d 16 -S UP -r 256000 -D 0.01 -c black
l -t * -s 20 -d 16 -S UP -r 256000 -D 0.01 -c black
l -t * -s 21 -d 0 -S UP -r 1000000 -D 0.01 -c black
l -t * -s 22 -d 21 -S UP -r 256000 -D 0.01 -c black
l -t * -s 23 -d 21 -S UP -r 256000 -D 0.01 -c black
l -t * -s 24 -d 21 -S UP -r 256000 -D 0.01 -c black
l -t * -s 25 -d 21 -S UP -r 256000 -D 0.01 -c black
l -t * -s 26 -d 0 -S UP -r 1000000 -D 0.01 -c black
l -t * -s 27 -d 26 -S UP -r 256000 -D 0.01 -c black
l -t * -s 28 -d 26 -S UP -r 256000 -D 0.01 -c black
l -t * -s 29 -d 26 -S UP -r 256000 -D 0.01 -c black
l -t * -s 30 -d 26 -S UP -r 256000 -D 0.01 -c black
l -t * -s 31 -d 0 -S UP -r 1000000 -D 0.01 -c black
l -t * -s 32 -d 31 -S UP -r 256000 -D 0.01 -c black
l -t * -s 33 -d 31 -S UP -r 256000 -D 0.01 -c black
l -t * -s 34 -d 31 -S UP -r 256000 -D 0.01 -c black
l -t * -s 35 -d 31 -S UP -r 256000 -D 0.01 -c black
l -t * -s 36 -d 0 -S UP -r 1000000 -D 0.01 -c black
l -t * -s 37 -d 36 -S UP -r 256000 -D 0.01 -c black
l -t * -s 38 -d 36 -S UP -r 256000 -D 0.01 -c black
l -t * -s 39 -d 36 -S UP -r 256000 -D 0.01 -c black
l -t * -s 40 -d 36 -S UP -r 256000 -D 0.01 -c black
l -t * -s 41 -d 0 -S UP -r 1000000 -D 0.01 -c black
l -t * -s 42 -d 41 -S UP -r 256000 -D 0.01 -c black
l -t * -s 43 -d 41 -S UP -r 256000 -D 0.01 -c black
l -t * -s 44 -d 41 -S UP -r 256000 -D 0.01 -c black
l -t * -s 45 -d 41 -S UP -r 256000 -D 0.01 -c black
l -t * -s 46 -d 0 -S UP -r 1000000 -D 0.01 -c black
l -t * -s 47 -d 46 -S UP -r 256000 -D 0.01 -c black
l -t * -s 48 -d 46 -S UP -r 256000 -D 0.01 -c black
l -t * -s 49 -d 46 -S UP -r 256000 -D 0.01 -c black
l -t * -s 50 -d 46 -S UP -r 256000 -D 0.01 -c black
l -t * -s 51 -d 0 -S UP -r 1000000 -D 0.01 -c black
l -t * -s 52 -d 51 -S UP -r 256000 -D 0.01 -c black
l -t * -s 53 -d 51 -S UP -r 256000 -D 0.01 -c black
l -t * -s 54 -d 51 -S UP -r 256000 -D 0.01 -c black
l -t * -s 55 -d 51 -S UP -r 256000 -D 0.01 -c black
l -t * -s 56 -d 0 -S UP -r 1000000 -D 0.01 -c black
l -t * -s 57 -d 56 -S UP -r 256000 -D 0.01 -c black
l -t * -s 58 -d 56 -S UP -r 256000 -D 0.01 -c black
l -t * -s 59 -d 56 -S UP -r 256000 -D 0.01 -c black
l -t * -s 60 -d 56 -S UP -r 256000 -D 0.01 -c black
l -t * -s 61 -d 0 -S UP -r 1000000 -D 0.01 -c black
l -t * -s 62 -d 61 -S UP -r 256000 -D 0.01 -c black
l -t * -s 63 -d 61 -S UP -r 256000 -D 0.01 -c black
l -t * -s 64 -d 61 -S UP -r 256000 -D 0.01 -c black
l -t * -s 65 -d 61 -S UP -r 256000 -D 0.01 -c black
l -t * -s 66 -d 0 -S UP -r 1000000 -D 0.01 -c black
l -t * -s 67 -d 66 -S UP -r 256000 -D 0.01 -c black
l -t * -s 68 -d 66 -S UP -r 256000 -D 0.01 -c black
l -t * -s 69 -d 66 -S UP -r 256000 -D 0.01 -c black
l -t * -s 70 -d 66 -S UP -r 256000 -D 0.01 -c black
l -t * -s 71 -d 0 -S UP -r 1000000 -D 0.01 -c black
l -t * -s 72 -d 71 -S UP -r 256000 -D 0.01 -c black
l -t * -s 73 -d 71 -S UP -r 256000 -D 0.01 -c black
l -t * -s 74 -d 71 -S UP -r 256000 -D 0.01 -c black
l -t * -s 75 -d 71 -S UP -r 256000 -D 0.01 -c black
+ -t 0.1 -s 2 -d 1 -p cbr -e 500 -c 0 -i 0 -a 0 -x {2.1 1.0 0 ------- null}
- -t 0.1 -s 2 -d 1 -p cbr -e 500 -c 0 -i 0 -a 0 -x {2.1 1.0 0 ------- null}
h -t 0.1 -s 2 -d 1 -p cbr -e 500 -c 0 -i 0 -a 0 -x {2.1 1.0 -1 ------- null}
+ -t 0.1 -s 7 -d 6 -p cbr -e 500 -c 0 -i 1 -a 0 -x {7.1 6.0 0 ------- null}
- -t 0.1 -s 7 -d 6 -p cbr -e 500 -c 0 -i 1 -a 0 -x {7.1 6.0 0 ------- null}
h -t 0.1 -s 7 -d 6 -p cbr -e 500 -c 0 -i 1 -a 0 -x {7.1 6.0 -1 ------- null}
+ -t 0.1 -s 12 -d 11 -p cbr -e 500 -c 0 -i 2 -a 0 -x {12.1 11.0 0 ------- null}
- -t 0.1 -s 12 -d 11 -p cbr -e 500 -c 0 -i 2 -a 0 -x {12.1 11.0 0 ------- null}
h -t 0.1 -s 12 -d 11 -p cbr -e 500 -c 0 -i 2 -a 0 -x {12.1 11.0 -1 ------- null}
+ -t 0.1 -s 17 -d 16 -p cbr -e 500 -c 0 -i 3 -a 0 -x {17.1 16.0 0 ------- null}
- -t 0.1 -s 17 -d 16 -p cbr -e 500 -c 0 -i 3 -a 0 -x {17.1 16.0 0 ------- null}
h -t 0.1 -s 17 -d 16 -p cbr -e 500 -c 0 -i 3 -a 0 -x {17.1 16.0 -1 ------- null}
+ -t 0.1 -s 22 -d 21 -p cbr -e 500 -c 0 -i 4 -a 0 -x {22.1 21.0 0 ------- null}
- -t 0.1 -s 22 -d 21 -p cbr -e 500 -c 0 -i 4 -a 0 -x {22.1 21.0 0 ------- null}
h -t 0.1 -s 22 -d 21 -p cbr -e 500 -c 0 -i 4 -a 0 -x {22.1 21.0 -1 ------- null}
+ -t 0.1 -s 27 -d 26 -p cbr -e 500 -c 0 -i 5 -a 0 -x {27.1 26.0 0 ------- null}
- -t 0.1 -s 27 -d 26 -p cbr -e 500 -c 0 -i 5 -a 0 -x {27.1 26.0 0 ------- null}
h -t 0.1 -s 27 -d 26 -p cbr -e 500 -c 0 -i 5 -a 0 -x {27.1 26.0 -1 ------- null}
+ -t 0.1 -s 32 -d 31 -p cbr -e 500 -c 0 -i 6 -a 0 -x {32.1 31.0 0 ------- null}
- -t 0.1 -s 32 -d 31 -p cbr -e 500 -c 0 -i 6 -a 0 -x {32.1 31.0 0 ------- null}
h -t 0.1 -s 32 -d 31 -p cbr -e 500 -c 0 -i 6 -a 0 -x {32.1 31.0 -1 ------- null}
+ -t 0.1 -s 37 -d 36 -p cbr -e 500 -c 0 -i 7 -a 0 -x {37.1 36.0 0 ------- null}
- -t 0.1 -s 37 -d 36 -p cbr -e 500 -c 0 -i 7 -a 0 -x {37.1 36.0 0 ------- null}
h -t 0.1 -s 37 -d 36 -p cbr -e 500 -c 0 -i 7 -a 0 -x {37.1 36.0 -1 ------- null}
+ -t 0.1 -s 42 -d 41 -p cbr -e 500 -c 0 -i 8 -a 0 -x {42.1 41.0 0 ------- null}
- -t 0.1 -s 42 -d 41 -p cbr -e 500 -c 0 -i 8 -a 0 -x {42.1 41.0 0 ------- null}
h -t 0.1 -s 42 -d 41 -p cbr -e 500 -c 0 -i 8 -a 0 -x {42.1 41.0 -1 ------- null}
+ -t 0.1 -s 47 -d 46 -p cbr -e 500 -c 0 -i 9 -a 0 -x {47.1 46.0 0 ------- null}
- -t 0.1 -s 47 -d 46 -p cbr -e 500 -c 0 -i 9 -a 0 -x {47.1 46.0 0 ------- null}
h -t 0.1 -s 47 -d 46 -p cbr -e 500 -c 0 -i 9 -a 0 -x {47.1 46.0 -1 ------- null}
+ -t 0.1 -s 52 -d 51 -p cbr -e 500 -c 0 -i 10 -a 0 -x {52.1 51.0 0 ------- null}
- -t 0.1 -s 52 -d 51 -p cbr -e 500 -c 0 -i 10 -a 0 -x {52.1 51.0 0 ------- null}
h -t 0.1 -s 52 -d 51 -p cbr -e 500 -c 0 -i 10 -a 0 -x {52.1 51.0 -1 ------- null}
+ -t 0.1 -s 57 -d 56 -p cbr -e 500 -c 0 -i 11 -a 0 -x {57.1 56.0 0 ------- null}
- -t 0.1 -s 57 -d 56 -p cbr -e 500 -c 0 -i 11 -a 0 -x {57.1 56.0 0 ------- null}
h -t 0.1 -s 57 -d 56 -p cbr -e 500 -c 0 -i 11 -a 0 -x {57.1 56.0 -1 ------- null}
+ -t 0.1 -s 62 -d 61 -p cbr -e 500 -c 0 -i 12 -a 0 -x {62.1 61.0 0 ------- null}
- -t 0.1 -s 62 -d 61 -p cbr -e 500 -c 0 -i 12 -a 0 -x {62.1 61.0 0 ------- null}
h -t 0.1 -s 62 -d 61 -p cbr -e 500 -c 0 -i 12 -a 0 -x {62.1 61.0 -1 ------- null}
+ -t 0.1 -s 67 -d 66 -p cbr -e 500 -c 0 -i 13 -a 0 -x {67.1 66.0 0 ------- null}
- -t 0.1 -s 67 -d 66 -p cbr -e 500 -c 0 -i 13 -a 0 -x {67.1 66.0 0 ------- null}
h -t 0.1 -s 67 -d 66 -p cbr -e 500 -c 0 -i 13 -a 0 -x {67.1 66.0 -1 ------- null}
+ -t 0.1 -s 72 -d 71 -p cbr -e 500 -c 0 -i 14 -a 0 -x {72.1 71.0 0 ------- null}
- -t 0.1 -s 72 -d 71 -p cbr -e 500 -c 0 -i 14 -a 0 -x {72.1 71.0 0 ------- null}
h -t 0.1 -s 72 -d 71 -p cbr -e 500 -c 0 -i 14 -a 0 -x {72.1 71.0 -1 ------- null}
r -t 0.125625 -s 2 -d 1 -p cbr -e 500 -c 0 -i 0 -a 0 -x {2.1 1.0 0 ------- null}
r -t 0.125625 -s 7 -d 6 -p cbr -e 500 -c 0 -i 1 -a 0 -x {7.1 6.0 0 ------- null}
r -t 0.125625 -s 12 -d 11 -p cbr -e 500 -c 0 -i 2 -a 0 -x {12.1 11.0 0 ------- null}
r -t 0.125625 -s 17 -d 16 -p cbr -e 500 -c 0 -i 3 -a 0 -x {17.1 16.0 0 ------- null}
r -t 0.125625 -s 22 -d 21 -p cbr -e 500 -c 0 -i 4 -a 0 -x {22.1 21.0 0 ------- null}
r -t 0.125625 -s 27 -d 26 -p cbr -e 500 -c 0 -i 5 -a 0 -x {27.1 26.0 0 ------- null}
r -t 0.125625 -s 32 -d 31 -p cbr -e 500 -c 0 -i 6 -a 0 -x {32.1 31.0 0 ------- null}
r -t 0.125625 -s 37 -d 36 -p cbr -e 500 -c 0 -i 7 -a 0 -x {37.1 36.0 0 ------- null}
r -t 0.125625 -s 42 -d 41 -p cbr -e 500 -c 0 -i 8 -a 0 -x {42.1 41.0 0 ------- null}
r -t 0.125625 -s 47 -d 46 -p cbr -e 500 -c 0 -i 9 -a 0 -x {47.1 46.0 0 ------- null}
r -t 0.125625 -s 52 -d 51 -p cbr -e 500 -c 0 -i 10 -a 0 -x {52.1 51.0 0 ------- null}
r -t 0.125625 -s 57 -d 56 -p cbr -e 500 -c 0 -i 11 -a 0 -x {57.1 56.0 0 ------- null}
r -t 0.125625 -s 62 -d 61 -p cbr -e 500 -c 0 -i 12 -a 0 -x {62.1 61.0 0 ------- null}
r -t 0.125625 -s 67 -d 66 -p cbr -e 500 -c 0 -i 13 -a 0 -x {67.1 66.0 0 ------- null}
r -t 0.125625 -s 72 -d 71 -p cbr -e 500 -c 0 -i 14 -a 0 -x {72.1 71.0 0 ------- null}
+ -t 0.2 -s 3 -d 1 -p cbr -e 500 -c 0 -i 15 -a 0 -x {3.1 1.0 0 ------- null}
- -t 0.2 -s 3 -d 1 -p cbr -e 500 -c 0 -i 15 -a 0 -x {3.1 1.0 0 ------- null}
h -t 0.2 -s 3 -d 1 -p cbr -e 500 -c 0 -i 15 -a 0 -x {3.1 1.0 -1 ------- null}
+ -t 0.2 -s 8 -d 6 -p cbr -e 500 -c 0 -i 16 -a 0 -x {8.1 6.0 0 ------- null}
- -t 0.2 -s 8 -d 6 -p cbr -e 500 -c 0 -i 16 -a 0 -x {8.1 6.0 0 ------- null}
h -t 0.2 -s 8 -d 6 -p cbr -e 500 -c 0 -i 16 -a 0 -x {8.1 6.0 -1 ------- null}
+ -t 0.2 -s 13 -d 11 -p cbr -e 500 -c 0 -i 17 -a 0 -x {13.1 11.0 0 ------- null}
- -t 0.2 -s 13 -d 11 -p cbr -e 500 -c 0 -i 17 -a 0 -x {13.1 11.0 0 ------- null}
h -t 0.2 -s 13 -d 11 -p cbr -e 500 -c 0 -i 17 -a 0 -x {13.1 11.0 -1 ------- null}
+ -t 0.2 -s 18 -d 16 -p cbr -e 500 -c 0 -i 18 -a 0 -x {18.1 16.0 0 ------- null}
- -t 0.2 -s 18 -d 16 -p cbr -e 500 -c 0 -i 18 -a 0 -x {18.1 16.0 0 ------- null}
h -t 0.2 -s 18 -d 16 -p cbr -e 500 -c 0 -i 18 -a 0 -x {18.1 16.0 -1 ------- null}
+ -t 0.2 -s 23 -d 21 -p cbr -e 500 -c 0 -i 19 -a 0 -x {23.1 21.0 0 ------- null}
- -t 0.2 -s 23 -d 21 -p cbr -e 500 -c 0 -i 19 -a 0 -x {23.1 21.0 0 ------- null}
h -t 0.2 -s 23 -d 21 -p cbr -e 500 -c 0 -i 19 -a 0 -x {23.1 21.0 -1 ------- null}
+ -t 0.2 -s 28 -d 26 -p cbr -e 500 -c 0 -i 20 -a 0 -x {28.1 26.0 0 ------- null}
- -t 0.2 -s 28 -d 26 -p cbr -e 500 -c 0 -i 20 -a 0 -x {28.1 26.0 0 ------- null}
h -t 0.2 -s 28 -d 26 -p cbr -e 500 -c 0 -i 20 -a 0 -x {28.1 26.0 -1 ------- null}
+ -t 0.2 -s 33 -d 31 -p cbr -e 500 -c 0 -i 21 -a 0 -x {33.1 31.0 0 ------- null}
- -t 0.2 -s 33 -d 31 -p cbr -e 500 -c 0 -i 21 -a 0 -x {33.1 31.0 0 ------- null}
h -t 0.2 -s 33 -d 31 -p cbr -e 500 -c 0 -i 21 -a 0 -x {33.1 31.0 -1 ------- null}
+ -t 0.2 -s 38 -d 36 -p cbr -e 500 -c 0 -i 22 -a 0 -x {38.1 36.0 0 ------- null}
- -t 0.2 -s 38 -d 36 -p cbr -e 500 -c 0 -i 22 -a 0 -x {38.1 36.0 0 ------- null}
h -t 0.2 -s 38 -d 36 -p cbr -e 500 -c 0 -i 22 -a 0 -x {38.1 36.0 -1 ------- null}
+ -t 0.2 -s 43 -d 41 -p cbr -e 500 -c 0 -i 23 -a 0 -x {43.1 41.0 0 ------- null}
- -t 0.2 -s 43 -d 41 -p cbr -e 500 -c 0 -i 23 -a 0 -x {43.1 41.0 0 ------- null}
h -t 0.2 -s 43 -d 41 -p cbr -e 500 -c 0 -i 23 -a 0 -x {43.1 41.0 -1 ------- null}
+ -t 0.2 -s 48 -d 46 -p cbr -e 500 -c 0 -i 24 -a 0 -x {48.1 46.0 0 ------- null}
- -t 0.2 -s 48 -d 46 -p cbr -e 500 -c 0 -i 24 -a 0 -x {48.1 46.0 0 ------- null}
h -t 0.2 -s 48 -d 46 -p cbr -e 500 -c 0 -i 24 -a 0 -x {48.1 46.0 -1 ------- null}
+ -t 0.2 -s 53 -d 51 -p cbr -e 500 -c 0 -i 25 -a 0 -x {53.1 51.0 0 ------- null}
- -t 0.2 -s 53 -d 51 -p cbr -e 500 -c 0 -i 25 -a 0 -x {53.1 51.0 0 ------- null}
h -t 0.2 -s 53 -d 51 -p cbr -e 500 -c 0 -i 25 -a 0 -x {53.1 51.0 -1 ------- null}
+ -t 0.2 -s 58 -d 56 -p cbr -e 500 -c 0 -i 26 -a 0 -x {58.1 56.0 0 ------- null}
- -t 0.2 -s 58 -d 56 -p cbr -e 500 -c 0 -i 26 -a 0 -x {58.1 56.0 0 ------- null}
h -t 0.2 -s 58 -d 56 -p cbr -e 500 -c 0 -i 26 -a 0 -x {58.1 56.0 -1 ------- null}
+ -t 0.2 -s 63 -d 61 -p cbr -e 500 -c 0 -i 27 -a 0 -x {63.1 61.0 0 ------- null}
- -t 0.2 -s 63 -d 61 -p cbr -e 500 -c 0 -i 27 -a 0 -x {63.1 61.0 0 ------- null}
h -t 0.2 -s 63 -d 61 -p cbr -e 500 -c 0 -i 27 -a 0 -x {63.1 61.0 -1 ------- null}
+ -t 0.2 -s 68 -d 66 -p cbr -e 500 -c 0 -i 28 -a 0 -x {68.1 66.0 0 ------- null}
- -t 0.2 -s 68 -d 66 -p cbr -e 500 -c 0 -i 28 -a 0 -x {68.1 66.0 0 ------- null}
h -t 0.2 -s 68 -d 66 -p cbr -e 500 -c 0 -i 28 -a 0 -x {68.1 66.0 -1 ------- null}
+ -t 0.2 -s 73 -d 71 -p cbr -e 500 -c 0 -i 29 -a 0 -x {73.1 71.0 0 ------- null}
- -t 0.2 -s 73 -d 71 -p cbr -e 500 -c 0 -i 29 -a 0 -x {73.1 71.0 0 ------- null}
h -t 0.2 -s 73 -d 71 -p cbr -e 500 -c 0 -i 29 -a 0 -x {73.1 71.0 -1 ------- null}
r -t 0.225625 -s 3 -d 1 -p cbr -e 500 -c 0 -i 15 -a 0 -x {3.1 1.0 0 ------- null}
r -t 0.225625 -s 8 -d 6 -p cbr -e 500 -c 0 -i 16 -a 0 -x {8.1 6.0 0 ------- null}
r -t 0.225625 -s 13 -d 11 -p cbr -e 500 -c 0 -i 17 -a 0 -x {13.1 11.0 0 ------- null}
r -t 0.225625 -s 18 -d 16 -p cbr -e 500 -c 0 -i 18 -a 0 -x {18.1 16.0 0 ------- null}
r -t 0.225625 -s 23 -d 21 -p cbr -e 500 -c 0 -i 19 -a 0 -x {23.1 21.0 0 ------- null}
r -t 0.225625 -s 28 -d 26 -p cbr -e 500 -c 0 -i 20 -a 0 -x {28.1 26.0 0 ------- null}
r -t 0.225625 -s 33 -d 31 -p cbr -e 500 -c 0 -i 21 -a 0 -x {33.1 31.0 0 ------- null}
r -t 0.225625 -s 38 -d 36 -p cbr -e 500 -c 0 -i 22 -a 0 -x {38.1 36.0 0 ------- null}
r -t 0.225625 -s 43 -d 41 -p cbr -e 500 -c 0 -i 23 -a 0 -x {43.1 41.0 0 ------- null}
r -t 0.225625 -s 48 -d 46 -p cbr -e 500 -c 0 -i 24 -a 0 -x {48.1 46.0 0 ------- null}
r -t 0.225625 -s 53 -d 51 -p cbr -e 500 -c 0 -i 25 -a 0 -x {53.1 51.0 0 ------- null}
r -t 0.225625 -s 58 -d 56 -p cbr -e 500 -c 0 -i 26 -a 0 -x {58.1 56.0 0 ------- null}
r -t 0.225625 -s 63 -d 61 -p cbr -e 500 -c 0 -i 27 -a 0 -x {63.1 61.0 0 ------- null}
r -t 0.225625 -s 68 -d 66 -p cbr -e 500 -c 0 -i 28 -a 0 -x {68.1 66.0 0 ------- null}
r -t 0.225625 -s 73 -d 71 -p cbr -e 500 -c 0 -i 29 -a 0 -x {73.1 71.0 0 ------- null}
+ -t 0.3 -s 4 -d 1 -p cbr -e 500 -c 0 -i 30 -a 0 -x {4.1 1.0 0 ------- null}
- -t 0.3 -s 4 -d 1 -p cbr -e 500 -c 0 -i 30 -a 0 -x {4.1 1.0 0 ------- null}
h -t 0.3 -s 4 -d 1 -p cbr -e 500 -c 0 -i 30 -a 0 -x {4.1 1.0 -1 ------- null}
+ -t 0.3 -s 9 -d 6 -p cbr -e 500 -c 0 -i 31 -a 0 -x {9.1 6.0 0 ------- null}
- -t 0.3 -s 9 -d 6 -p cbr -e 500 -c 0 -i 31 -a 0 -x {9.1 6.0 0 ------- null}
h -t 0.3 -s 9 -d 6 -p cbr -e 500 -c 0 -i 31 -a 0 -x {9.1 6.0 -1 ------- null}
+ -t 0.3 -s 14 -d 11 -p cbr -e 500 -c 0 -i 32 -a 0 -x {14.1 11.0 0 ------- null}
- -t 0.3 -s 14 -d 11 -p cbr -e 500 -c 0 -i 32 -a 0 -x {14.1 11.0 0 ------- null}
h -t 0.3 -s 14 -d 11 -p cbr -e 500 -c 0 -i 32 -a 0 -x {14.1 11.0 -1 ------- null}
+ -t 0.3 -s 19 -d 16 -p cbr -e 500 -c 0 -i 33 -a 0 -x {19.1 16.0 0 ------- null}
- -t 0.3 -s 19 -d 16 -p cbr -e 500 -c 0 -i 33 -a 0 -x {19.1 16.0 0 ------- null}
h -t 0.3 -s 19 -d 16 -p cbr -e 500 -c 0 -i 33 -a 0 -x {19.1 16.0 -1 ------- null}
+ -t 0.3 -s 24 -d 21 -p cbr -e 500 -c 0 -i 34 -a 0 -x {24.1 21.0 0 ------- null}
- -t 0.3 -s 24 -d 21 -p cbr -e 500 -c 0 -i 34 -a 0 -x {24.1 21.0 0 ------- null}
h -t 0.3 -s 24 -d 21 -p cbr -e 500 -c 0 -i 34 -a 0 -x {24.1 21.0 -1 ------- null}
+ -t 0.3 -s 29 -d 26 -p cbr -e 500 -c 0 -i 35 -a 0 -x {29.1 26.0 0 ------- null}
- -t 0.3 -s 29 -d 26 -p cbr -e 500 -c 0 -i 35 -a 0 -x {29.1 26.0 0 ------- null}
h -t 0.3 -s 29 -d 26 -p cbr -e 500 -c 0 -i 35 -a 0 -x {29.1 26.0 -1 ------- null}
+ -t 0.3 -s 34 -d 31 -p cbr -e 500 -c 0 -i 36 -a 0 -x {34.1 31.0 0 ------- null}
- -t 0.3 -s 34 -d 31 -p cbr -e 500 -c 0 -i 36 -a 0 -x {34.1 31.0 0 ------- null}
h -t 0.3 -s 34 -d 31 -p cbr -e 500 -c 0 -i 36 -a 0 -x {34.1 31.0 -1 ------- null}
+ -t 0.3 -s 39 -d 36 -p cbr -e 500 -c 0 -i 37 -a 0 -x {39.1 36.0 0 ------- null}
- -t 0.3 -s 39 -d 36 -p cbr -e 500 -c 0 -i 37 -a 0 -x {39.1 36.0 0 ------- null}
h -t 0.3 -s 39 -d 36 -p cbr -e 500 -c 0 -i 37 -a 0 -x {39.1 36.0 -1 ------- null}
+ -t 0.3 -s 44 -d 41 -p cbr -e 500 -c 0 -i 38 -a 0 -x {44.1 41.0 0 ------- null}
- -t 0.3 -s 44 -d 41 -p cbr -e 500 -c 0 -i 38 -a 0 -x {44.1 41.0 0 ------- null}
h -t 0.3 -s 44 -d 41 -p cbr -e 500 -c 0 -i 38 -a 0 -x {44.1 41.0 -1 ------- null}
+ -t 0.3 -s 49 -d 46 -p cbr -e 500 -c 0 -i 39 -a 0 -x {49.1 46.0 0 ------- null}
- -t 0.3 -s 49 -d 46 -p cbr -e 500 -c 0 -i 39 -a 0 -x {49.1 46.0 0 ------- null}
h -t 0.3 -s 49 -d 46 -p cbr -e 500 -c 0 -i 39 -a 0 -x {49.1 46.0 -1 ------- null}
+ -t 0.3 -s 54 -d 51 -p cbr -e 500 -c 0 -i 40 -a 0 -x {54.1 51.0 0 ------- null}
- -t 0.3 -s 54 -d 51 -p cbr -e 500 -c 0 -i 40 -a 0 -x {54.1 51.0 0 ------- null}
h -t 0.3 -s 54 -d 51 -p cbr -e 500 -c 0 -i 40 -a 0 -x {54.1 51.0 -1 ------- null}
+ -t 0.3 -s 59 -d 56 -p cbr -e 500 -c 0 -i 41 -a 0 -x {59.1 56.0 0 ------- null}
- -t 0.3 -s 59 -d 56 -p cbr -e 500 -c 0 -i 41 -a 0 -x {59.1 56.0 0 ------- null}
h -t 0.3 -s 59 -d 56 -p cbr -e 500 -c 0 -i 41 -a 0 -x {59.1 56.0 -1 ------- null}
+ -t 0.3 -s 64 -d 61 -p cbr -e 500 -c 0 -i 42 -a 0 -x {64.1 61.0 0 ------- null}
- -t 0.3 -s 64 -d 61 -p cbr -e 500 -c 0 -i 42 -a 0 -x {64.1 61.0 0 ------- null}
h -t 0.3 -s 64 -d 61 -p cbr -e 500 -c 0 -i 42 -a 0 -x {64.1 61.0 -1 ------- null}
+ -t 0.3 -s 69 -d 66 -p cbr -e 500 -c 0 -i 43 -a 0 -x {69.1 66.0 0 ------- null}
- -t 0.3 -s 69 -d 66 -p cbr -e 500 -c 0 -i 43 -a 0 -x {69.1 66.0 0 ------- null}
h -t 0.3 -s 69 -d 66 -p cbr -e 500 -c 0 -i 43 -a 0 -x {69.1 66.0 -1 ------- null}
+ -t 0.3 -s 74 -d 71 -p cbr -e 500 -c 0 -i 44 -a 0 -x {74.1 71.0 0 ------- null}
- -t 0.3 -s 74 -d 71 -p cbr -e 500 -c 0 -i 44 -a 0 -x {74.1 71.0 0 ------- null}
h -t 0.3 -s 74 -d 71 -p cbr -e 500 -c 0 -i 44 -a 0 -x {74.1 71.0 -1 ------- null}
r -t 0.325625 -s 4 -d 1 -p cbr -e 500 -c 0 -i 30 -a 0 -x {4.1 1.0 0 ------- null}
r -t 0.325625 -s 9 -d 6 -p cbr -e 500 -c 0 -i 31 -a 0 -x {9.1 6.0 0 ------- null}
r -t 0.325625 -s 14 -d 11 -p cbr -e 500 -c 0 -i 32 -a 0 -x {14.1 11.0 0 ------- null}
r -t 0.325625 -s 19 -d 16 -p cbr -e 500 -c 0 -i 33 -a 0 -x {19.1 16.0 0 ------- null}
r -t 0.325625 -s 24 -d 21 -p cbr -e 500 -c 0 -i 34 -a 0 -x {24.1 21.0 0 ------- null}
r -t 0.325625 -s 29 -d 26 -p cbr -e 500 -c 0 -i 35 -a 0 -x {29.1 26.0 0 ------- null}
r -t 0.325625 -s 34 -d 31 -p cbr -e 500 -c 0 -i 36 -a 0 -x {34.1 31.0 0 ------- null}
r -t 0.325625 -s 39 -d 36 -p cbr -e 500 -c 0 -i 37 -a 0 -x {39.1 36.0 0 ------- null}
r -t 0.325625 -s 44 -d 41 -p cbr -e 500 -c 0 -i 38 -a 0 -x {44.1 41.0 0 ------- null}
r -t 0.325625 -s 49 -d 46 -p cbr -e 500 -c 0 -i 39 -a 0 -x {49.1 46.0 0 ------- null}
r -t 0.325625 -s 54 -d 51 -p cbr -e 500 -c 0 -i 40 -a 0 -x {54.1 51.0 0 ------- null}
r -t 0.325625 -s 59 -d 56 -p cbr -e 500 -c 0 -i 41 -a 0 -x {59.1 56.0 0 ------- null}
r -t 0.325625 -s 64 -d 61 -p cbr -e 500 -c 0 -i 42 -a 0 -x {64.1 61.0 0 ------- null}
r -t 0.325625 -s 69 -d 66 -p cbr -e 500 -c 0 -i 43 -a 0 -x {69.1 66.0 0 ------- null}
r -t 0.325625 -s 74 -d 71 -p cbr -e 500 -c 0 -i 44 -a 0 -x {74.1 71.0 0 ------- null}
+ -t 0.4 -s 5 -d 1 -p cbr -e 500 -c 0 -i 45 -a 0 -x {5.1 1.0 0 ------- null}
- -t 0.4 -s 5 -d 1 -p cbr -e 500 -c 0 -i 45 -a 0 -x {5.1 1.0 0 ------- null}
h -t 0.4 -s 5 -d 1 -p cbr -e 500 -c 0 -i 45 -a 0 -x {5.1 1.0 -1 ------- null}
+ -t 0.4 -s 10 -d 6 -p cbr -e 500 -c 0 -i 46 -a 0 -x {10.1 6.0 0 ------- null}
- -t 0.4 -s 10 -d 6 -p cbr -e 500 -c 0 -i 46 -a 0 -x {10.1 6.0 0 ------- null}
h -t 0.4 -s 10 -d 6 -p cbr -e 500 -c 0 -i 46 -a 0 -x {10.1 6.0 -1 ------- null}
+ -t 0.4 -s 15 -d 11 -p cbr -e 500 -c 0 -i 47 -a 0 -x {15.1 11.0 0 ------- null}
- -t 0.4 -s 15 -d 11 -p cbr -e 500 -c 0 -i 47 -a 0 -x {15.1 11.0 0 ------- null}
h -t 0.4 -s 15 -d 11 -p cbr -e 500 -c 0 -i 47 -a 0 -x {15.1 11.0 -1 ------- null}
+ -t 0.4 -s 20 -d 16 -p cbr -e 500 -c 0 -i 48 -a 0 -x {20.1 16.0 0 ------- null}
- -t 0.4 -s 20 -d 16 -p cbr -e 500 -c 0 -i 48 -a 0 -x {20.1 16.0 0 ------- null}
h -t 0.4 -s 20 -d 16 -p cbr -e 500 -c 0 -i 48 -a 0 -x {20.1 16.0 -1 ------- null}
+ -t 0.4 -s 25 -d 21 -p cbr -e 500 -c 0 -i 49 -a 0 -x {25.1 21.0 0 ------- null}
- -t 0.4 -s 25 -d 21 -p cbr -e 500 -c 0 -i 49 -a 0 -x {25.1 21.0 0 ------- null}
h -t 0.4 -s 25 -d 21 -p cbr -e 500 -c 0 -i 49 -a 0 -x {25.1 21.0 -1 ------- null}
+ -t 0.4 -s 30 -d 26 -p cbr -e 500 -c 0 -i 50 -a 0 -x {30.1 26.0 0 ------- null}
- -t 0.4 -s 30 -d 26 -p cbr -e 500 -c 0 -i 50 -a 0 -x {30.1 26.0 0 ------- null}
h -t 0.4 -s 30 -d 26 -p cbr -e 500 -c 0 -i 50 -a 0 -x {30.1 26.0 -1 ------- null}
+ -t 0.4 -s 35 -d 31 -p cbr -e 500 -c 0 -i 51 -a 0 -x {35.1 31.0 0 ------- null}
- -t 0.4 -s 35 -d 31 -p cbr -e 500 -c 0 -i 51 -a 0 -x {35.1 31.0 0 ------- null}
h -t 0.4 -s 35 -d 31 -p cbr -e 500 -c 0 -i 51 -a 0 -x {35.1 31.0 -1 ------- null}
+ -t 0.4 -s 40 -d 36 -p cbr -e 500 -c 0 -i 52 -a 0 -x {40.1 36.0 0 ------- null}
- -t 0.4 -s 40 -d 36 -p cbr -e 500 -c 0 -i 52 -a 0 -x {40.1 36.0 0 ------- null}
h -t 0.4 -s 40 -d 36 -p cbr -e 500 -c 0 -i 52 -a 0 -x {40.1 36.0 -1 ------- null}
+ -t 0.4 -s 45 -d 41 -p cbr -e 500 -c 0 -i 53 -a 0 -x {45.1 41.0 0 ------- null}
- -t 0.4 -s 45 -d 41 -p cbr -e 500 -c 0 -i 53 -a 0 -x {45.1 41.0 0 ------- null}
h -t 0.4 -s 45 -d 41 -p cbr -e 500 -c 0 -i 53 -a 0 -x {45.1 41.0 -1 ------- null}
+ -t 0.4 -s 50 -d 46 -p cbr -e 500 -c 0 -i 54 -a 0 -x {50.1 46.0 0 ------- null}
- -t 0.4 -s 50 -d 46 -p cbr -e 500 -c 0 -i 54 -a 0 -x {50.1 46.0 0 ------- null}
h -t 0.4 -s 50 -d 46 -p cbr -e 500 -c 0 -i 54 -a 0 -x {50.1 46.0 -1 ------- null}
+ -t 0.4 -s 55 -d 51 -p cbr -e 500 -c 0 -i 55 -a 0 -x {55.1 51.0 0 ------- null}
- -t 0.4 -s 55 -d 51 -p cbr -e 500 -c 0 -i 55 -a 0 -x {55.1 51.0 0 ------- null}
h -t 0.4 -s 55 -d 51 -p cbr -e 500 -c 0 -i 55 -a 0 -x {55.1 51.0 -1 ------- null}
+ -t 0.4 -s 60 -d 56 -p cbr -e 500 -c 0 -i 56 -a 0 -x {60.1 56.0 0 ------- null}
- -t 0.4 -s 60 -d 56 -p cbr -e 500 -c 0 -i 56 -a 0 -x {60.1 56.0 0 ------- null}
h -t 0.4 -s 60 -d 56 -p cbr -e 500 -c 0 -i 56 -a 0 -x {60.1 56.0 -1 ------- null}
+ -t 0.4 -s 65 -d 61 -p cbr -e 500 -c 0 -i 57 -a 0 -x {65.1 61.0 0 ------- null}
- -t 0.4 -s 65 -d 61 -p cbr -e 500 -c 0 -i 57 -a 0 -x {65.1 61.0 0 ------- null}
h -t 0.4 -s 65 -d 61 -p cbr -e 500 -c 0 -i 57 -a 0 -x {65.1 61.0 -1 ------- null}
+ -t 0.4 -s 70 -d 66 -p cbr -e 500 -c 0 -i 58 -a 0 -x {70.1 66.0 0 ------- null}
- -t 0.4 -s 70 -d 66 -p cbr -e 500 -c 0 -i 58 -a 0 -x {70.1 66.0 0 ------- null}
h -t 0.4 -s 70 -d 66 -p cbr -e 500 -c 0 -i 58 -a 0 -x {70.1 66.0 -1 ------- null}
+ -t 0.4 -s 75 -d 71 -p cbr -e 500 -c 0 -i 59 -a 0 -x {75.1 71.0 0 ------- null}
- -t 0.4 -s 75 -d 71 -p cbr -e 500 -c 0 -i 59 -a 0 -x {75.1 71.0 0 ------- null}
h -t 0.4 -s 75 -d 71 -p cbr -e 500 -c 0 -i 59 -a 0 -x {75.1 71.0 -1 ------- null}
+ -t 0.4 -s 2 -d 1 -p cbr -e 500 -c 0 -i 60 -a 0 -x {2.1 1.0 1 ------- null}
- -t 0.4 -s 2 -d 1 -p cbr -e 500 -c 0 -i 60 -a 0 -x {2.1 1.0 1 ------- null}
h -t 0.4 -s 2 -d 1 -p cbr -e 500 -c 0 -i 60 -a 0 -x {2.1 1.0 -1 ------- null}
+ -t 0.4 -s 7 -d 6 -p cbr -e 500 -c 0 -i 61 -a 0 -x {7.1 6.0 1 ------- null}
- -t 0.4 -s 7 -d 6 -p cbr -e 500 -c 0 -i 61 -a 0 -x {7.1 6.0 1 ------- null}
h -t 0.4 -s 7 -d 6 -p cbr -e 500 -c 0 -i 61 -a 0 -x {7.1 6.0 -1 ------- null}
+ -t 0.4 -s 12 -d 11 -p cbr -e 500 -c 0 -i 62 -a 0 -x {12.1 11.0 1 ------- null}
- -t 0.4 -s 12 -d 11 -p cbr -e 500 -c 0 -i 62 -a 0 -x {12.1 11.0 1 ------- null}
h -t 0.4 -s 12 -d 11 -p cbr -e 500 -c 0 -i 62 -a 0 -x {12.1 11.0 -1 ------- null}
+ -t 0.4 -s 17 -d 16 -p cbr -e 500 -c 0 -i 63 -a 0 -x {17.1 16.0 1 ------- null}
- -t 0.4 -s 17 -d 16 -p cbr -e 500 -c 0 -i 63 -a 0 -x {17.1 16.0 1 ------- null}
h -t 0.4 -s 17 -d 16 -p cbr -e 500 -c 0 -i 63 -a 0 -x {17.1 16.0 -1 ------- null}
+ -t 0.4 -s 22 -d 21 -p cbr -e 500 -c 0 -i 64 -a 0 -x {22.1 21.0 1 ------- null}
- -t 0.4 -s 22 -d 21 -p cbr -e 500 -c 0 -i 64 -a 0 -x {22.1 21.0 1 ------- null}
h -t 0.4 -s 22 -d 21 -p cbr -e 500 -c 0 -i 64 -a 0 -x {22.1 21.0 -1 ------- null}
+ -t 0.4 -s 27 -d 26 -p cbr -e 500 -c 0 -i 65 -a 0 -x {27.1 26.0 1 ------- null}
- -t 0.4 -s 27 -d 26 -p cbr -e 500 -c 0 -i 65 -a 0 -x {27.1 26.0 1 ------- null}
h -t 0.4 -s 27 -d 26 -p cbr -e 500 -c 0 -i 65 -a 0 -x {27.1 26.0 -1 ------- null}
+ -t 0.4 -s 32 -d 31 -p cbr -e 500 -c 0 -i 66 -a 0 -x {32.1 31.0 1 ------- null}
- -t 0.4 -s 32 -d 31 -p cbr -e 500 -c 0 -i 66 -a 0 -x {32.1 31.0 1 ------- null}
h -t 0.4 -s 32 -d 31 -p cbr -e 500 -c 0 -i 66 -a 0 -x {32.1 31.0 -1 ------- null}
+ -t 0.4 -s 37 -d 36 -p cbr -e 500 -c 0 -i 67 -a 0 -x {37.1 36.0 1 ------- null}
- -t 0.4 -s 37 -d 36 -p cbr -e 500 -c 0 -i 67 -a 0 -x {37.1 36.0 1 ------- null}
h -t 0.4 -s 37 -d 36 -p cbr -e 500 -c 0 -i 67 -a 0 -x {37.1 36.0 -1 ------- null}
+ -t 0.4 -s 42 -d 41 -p cbr -e 500 -c 0 -i 68 -a 0 -x {42.1 41.0 1 ------- null}
- -t 0.4 -s 42 -d 41 -p cbr -e 500 -c 0 -i 68 -a 0 -x {42.1 41.0 1 ------- null}
h -t 0.4 -s 42 -d 41 -p cbr -e 500 -c 0 -i 68 -a 0 -x {42.1 41.0 -1 ------- null}
+ -t 0.4 -s 47 -d 46 -p cbr -e 500 -c 0 -i 69 -a 0 -x {47.1 46.0 1 ------- null}
- -t 0.4 -s 47 -d 46 -p cbr -e 500 -c 0 -i 69 -a 0 -x {47.1 46.0 1 ------- null}
h -t 0.4 -s 47 -d 46 -p cbr -e 500 -c 0 -i 69 -a 0 -x {47.1 46.0 -1 ------- null}
+ -t 0.4 -s 52 -d 51 -p cbr -e 500 -c 0 -i 70 -a 0 -x {52.1 51.0 1 ------- null}
- -t 0.4 -s 52 -d 51 -p cbr -e 500 -c 0 -i 70 -a 0 -x {52.1 51.0 1 ------- null}
h -t 0.4 -s 52 -d 51 -p cbr -e 500 -c 0 -i 70 -a 0 -x {52.1 51.0 -1 ------- null}
+ -t 0.4 -s 57 -d 56 -p cbr -e 500 -c 0 -i 71 -a 0 -x {57.1 56.0 1 ------- null}
- -t 0.4 -s 57 -d 56 -p cbr -e 500 -c 0 -i 71 -a 0 -x {57.1 56.0 1 ------- null}
h -t 0.4 -s 57 -d 56 -p cbr -e 500 -c 0 -i 71 -a 0 -x {57.1 56.0 -1 ------- null}
+ -t 0.4 -s 62 -d 61 -p cbr -e 500 -c 0 -i 72 -a 0 -x {62.1 61.0 1 ------- null}
- -t 0.4 -s 62 -d 61 -p cbr -e 500 -c 0 -i 72 -a 0 -x {62.1 61.0 1 ------- null}
h -t 0.4 -s 62 -d 61 -p cbr -e 500 -c 0 -i 72 -a 0 -x {62.1 61.0 -1 ------- null}
+ -t 0.4 -s 67 -d 66 -p cbr -e 500 -c 0 -i 73 -a 0 -x {67.1 66.0 1 ------- null}
- -t 0.4 -s 67 -d 66 -p cbr -e 500 -c 0 -i 73 -a 0 -x {67.1 66.0 1 ------- null}
h -t 0.4 -s 67 -d 66 -p cbr -e 500 -c 0 -i 73 -a 0 -x {67.1 66.0 -1 ------- null}
+ -t 0.4 -s 72 -d 71 -p cbr -e 500 -c 0 -i 74 -a 0 -x {72.1 71.0 1 ------- null}
- -t 0.4 -s 72 -d 71 -p cbr -e 500 -c 0 -i 74 -a 0 -x {72.1 71.0 1 ------- null}